/*--------------------------------*- C++ -*----------------------------------*\
  =========                 |
  \\      /  F ield         | OpenFOAM: The Open Source CFD Toolbox
   \\    /   O peration     | Website:  https://openfoam.org
    \\  /    A nd           | Version:  12
     \\/     M anipulation  |
\*---------------------------------------------------------------------------*/
FoamFile
{
    format      ascii;
    class       volVectorField;
    location    "284";
    object      U;
}
// * * * * * * * * * * * * * * * * * * * * * * * * * * * * * * * * * * * * * //

dimensions      [0 1 -1 0 0 0 0];

internalField   nonuniform List<vector> 
12225
(
(9.85699 -0.886638 0)
(9.6663 -0.740719 0)
(9.4558 -0.429422 0)
(9.22455 -0.222148 0)
(9.00655 -0.106401 0)
(8.81446 -0.0458208 0)
(8.64763 -0.0151314 0)
(8.50547 0.000482775 0)
(8.38388 0.00840827 0)
(8.28118 0.012291 0)
(8.19288 0.0139857 0)
(8.11682 0.0149794 0)
(8.05025 0.0153808 0)
(7.99149 0.0155227 0)
(7.9386 0.0155396 0)
(7.89277 0.0152954 0)
(7.84013 0.0174052 0)
(7.83115 0.00995634 0)
(10.0545 0.227708 0)
(10.1213 0.326964 0)
(10.1196 0.26165 0)
(10.0856 0.18659 0)
(10.0435 0.134693 0)
(9.99677 0.101128 0)
(9.94406 0.0792866 0)
(9.88535 0.0645604 0)
(9.82403 0.0542457 0)
(9.76156 0.0466493 0)
(9.70015 0.040872 0)
(9.64041 0.0363031 0)
(9.58321 0.0326114 0)
(9.52893 0.0297136 0)
(9.47729 0.0271588 0)
(9.42985 0.0261196 0)
(9.38265 0.0227973 0)
(9.34781 0.0310605 0)
(10.0035 0.0581547 0)
(10.0305 0.0559486 0)
(10.056 0.0337727 0)
(10.0704 0.0328834 0)
(10.077 0.0406302 0)
(10.0779 0.0465251 0)
(10.0726 0.049336 0)
(10.0615 0.0502761 0)
(10.0463 0.0501663 0)
(10.0279 0.0494429 0)
(10.0074 0.0483852 0)
(9.9853 0.0472005 0)
(9.96226 0.0459876 0)
(9.93874 0.0448711 0)
(9.915 0.0437403 0)
(9.89178 0.0431441 0)
(9.86875 0.0420455 0)
(9.8471 0.0435137 0)
(9.99772 0.0109483 0)
(10.0111 0.0266177 0)
(10.035 0.0371192 0)
(10.0525 0.0480611 0)
(10.0644 0.0554282 0)
(10.0735 0.0581581 0)
(10.0796 0.0583233 0)
(10.0825 0.0575749 0)
(10.0829 0.0565168 0)
(10.0814 0.0553087 0)
(10.0784 0.0540191 0)
(10.0741 0.0527649 0)
(10.0688 0.0515394 0)
(10.0628 0.0504341 0)
(10.0561 0.0493478 0)
(10.0494 0.0486187 0)
(10.0424 0.047629 0)
(10.0355 0.0474476 0)
(9.99935 0.00709953 0)
(10.009 0.0316925 0)
(10.0275 0.0439035 0)
(10.0418 0.0499022 0)
(10.0528 0.0535883 0)
(10.0629 0.0552078 0)
(10.0716 0.0554808 0)
(10.0784 0.0551823 0)
(10.0836 0.0546273 0)
(10.0875 0.053908 0)
(10.0903 0.0530777 0)
(10.0923 0.0522296 0)
(10.0935 0.0513764 0)
(10.0942 0.0505827 0)
(10.0945 0.0497983 0)
(10.0945 0.0491817 0)
(10.0944 0.0484408 0)
(10.0943 0.047881 0)
(10.0003 0.00914836 0)
(10.0083 0.031208 0)
(10.0227 0.0409392 0)
(10.035 0.0453777 0)
(10.0451 0.0490152 0)
(10.0548 0.0513419 0)
(10.0638 0.0523133 0)
(10.0715 0.0525348 0)
(10.078 0.0523859 0)
(10.0836 0.0520036 0)
(10.0885 0.0514623 0)
(10.0927 0.0508476 0)
(10.0964 0.0501917 0)
(10.0997 0.0495403 0)
(10.1026 0.0488736 0)
(10.1054 0.0482523 0)
(10.108 0.0475391 0)
(10.1107 0.0467443 0)
(10.0004 0.0089225 0)
(10.0071 0.0271076 0)
(10.0191 0.0364086 0)
(10.0302 0.0413765 0)
(10.0396 0.0453893 0)
(10.0487 0.0480438 0)
(10.0573 0.0493004 0)
(10.065 0.049755 0)
(10.0718 0.0498094 0)
(10.078 0.0496084 0)
(10.0835 0.0492285 0)
(10.0886 0.0487444 0)
(10.0933 0.0481963 0)
(10.0976 0.0476157 0)
(10.1017 0.0469962 0)
(10.1056 0.0463515 0)
(10.1093 0.0456054 0)
(10.1131 0.0446904 0)
(10.0004 0.00789931 0)
(10.006 0.0233833 0)
(10.0161 0.0327281 0)
(10.0263 0.038085 0)
(10.0352 0.0420677 0)
(10.0436 0.044738 0)
(10.0518 0.0461338 0)
(10.0593 0.0467492 0)
(10.066 0.0469486 0)
(10.0723 0.0468757 0)
(10.0781 0.0466077 0)
(10.0834 0.0462123 0)
(10.0885 0.0457322 0)
(10.0932 0.0451913 0)
(10.0977 0.0445882 0)
(10.1021 0.0439164 0)
(10.1064 0.0431264 0)
(10.1105 0.04215 0)
(10.0004 0.00694931 0)
(10.005 0.0204196 0)
(10.0137 0.0294417 0)
(10.0229 0.0348402 0)
(10.0312 0.0386784 0)
(10.0392 0.0413256 0)
(10.0469 0.0428402 0)
(10.0541 0.0435929 0)
(10.0607 0.0439064 0)
(10.0669 0.0439299 0)
(10.0727 0.0437427 0)
(10.0781 0.0434085 0)
(10.0833 0.0429698 0)
(10.0882 0.0424476 0)
(10.0929 0.0418424 0)
(10.0974 0.0411427 0)
(10.1018 0.0403126 0)
(10.1061 0.039306 0)
(10.0004 0.00612185 0)
(10.0043 0.0178483 0)
(10.0116 0.0262593 0)
(10.0199 0.0315554 0)
(10.0277 0.0352669 0)
(10.0352 0.0378771 0)
(10.0425 0.0394695 0)
(10.0494 0.0403232 0)
(10.0558 0.0407213 0)
(10.0618 0.0408158 0)
(10.0675 0.0406873 0)
(10.0729 0.0403958 0)
(10.0781 0.0399822 0)
(10.083 0.039467 0)
(10.0877 0.0388529 0)
(10.0923 0.0381299 0)
(10.0966 0.0372722 0)
(10.1009 0.0362574 0)
(10.0003 0.00536356 0)
(10.0037 0.0155365 0)
(10.0099 0.0232172 0)
(10.0173 0.0283149 0)
(10.0245 0.0318835 0)
(10.0315 0.0344158 0)
(10.0384 0.0360318 0)
(10.045 0.0369478 0)
(10.0513 0.0374048 0)
(10.0571 0.0375501 0)
(10.0627 0.0374641 0)
(10.068 0.0372027 0)
(10.0731 0.0368054 0)
(10.0779 0.036293 0)
(10.0826 0.0356708 0)
(10.0871 0.0349331 0)
(10.0914 0.0340636 0)
(10.0956 0.0330575 0)
(10.0003 0.00469903 0)
(10.0032 0.0135947 0)
(10.0086 0.0205677 0)
(10.0152 0.0253989 0)
(10.0219 0.0288005 0)
(10.0286 0.0312261 0)
(10.0351 0.0328218 0)
(10.0414 0.0337628 0)
(10.0474 0.0342522 0)
(10.0531 0.0344277 0)
(10.0586 0.0343678 0)
(10.0638 0.0341255 0)
(10.0688 0.0337384 0)
(10.0735 0.033228 0)
(10.0781 0.0326025 0)
(10.0825 0.0318608 0)
(10.0867 0.0309936 0)
(10.0907 0.03001 0)
(10.0003 0.0040843 0)
(10.0028 0.0118248 0)
(10.0075 0.0180659 0)
(10.0134 0.0225546 0)
(10.0197 0.025755 0)
(10.0259 0.0280485 0)
(10.0321 0.0295914 0)
(10.0381 0.0305308 0)
(10.0439 0.0310345 0)
(10.0495 0.0312271 0)
(10.0548 0.031184 0)
(10.0598 0.0309555 0)
(10.0647 0.0305771 0)
(10.0694 0.030071 0)
(10.0738 0.0294479 0)
(10.0781 0.0287114 0)
(10.0822 0.0278576 0)
(10.0861 0.0269061 0)
(10.0002 0.00344922 0)
(10.0024 0.00998572 0)
(10.0064 0.0153827 0)
(10.0117 0.0194038 0)
(10.0174 0.0223192 0)
(10.0232 0.024421 0)
(10.029 0.0258606 0)
(10.0348 0.0267607 0)
(10.0403 0.0272542 0)
(10.0457 0.0274478 0)
(10.0508 0.0274113 0)
(10.0557 0.0271913 0)
(10.0604 0.026821 0)
(10.065 0.0263227 0)
(10.0693 0.0257093 0)
(10.0734 0.0249889 0)
(10.0774 0.0241627 0)
(10.0811 0.0232571 0)
(10.0002 0.00278976 0)
(10.002 0.00807565 0)
(10.0055 0.0125285 0)
(10.0101 0.0159522 0)
(10.0153 0.0184806 0)
(10.0206 0.0203154 0)
(10.0261 0.0215878 0)
(10.0314 0.0223974 0)
(10.0367 0.0228446 0)
(10.0418 0.0230152 0)
(10.0468 0.0229698 0)
(10.0515 0.0227502 0)
(10.0561 0.0223864 0)
(10.0604 0.0219 0)
(10.0646 0.0213056 0)
(10.0686 0.0206144 0)
(10.0724 0.0198315 0)
(10.076 0.0189868 0)
(10.0002 0.00210528 0)
(10.0017 0.00609668 0)
(10.0047 0.00951199 0)
(10.0088 0.012205 0)
(10.0134 0.0142275 0)
(10.0183 0.0157029 0)
(10.0233 0.0167297 0)
(10.0283 0.0173834 0)
(10.0333 0.0177354 0)
(10.0382 0.0178489 0)
(10.0429 0.0177724 0)
(10.0475 0.0175407 0)
(10.0518 0.0171794 0)
(10.056 0.0167082 0)
(10.06 0.0161418 0)
(10.0639 0.0154927 0)
(10.0675 0.0147681 0)
(10.071 0.0139983 0)
(10.0002 0.00139288 0)
(10.0015 0.00403486 0)
(10.0041 0.00631724 0)
(10.0076 0.00814562 0)
(10.0118 0.009532 0)
(10.0163 0.0105403 0)
(10.0209 0.011231 0)
(10.0256 0.0116526 0)
(10.0303 0.0118502 0)
(10.0349 0.0118645 0)
(10.0394 0.0117288 0)
(10.0438 0.0114684 0)
(10.048 0.0111029 0)
(10.052 0.0106479 0)
(10.0558 0.0101164 0)
(10.0595 0.00951996 0)
(10.063 0.00886551 0)
(10.0663 0.00818119 0)
(10.0001 0.00063623 0)
(10.0013 0.0018386 0)
(10.0036 0.00287252 0)
(10.0068 0.00369468 0)
(10.0107 0.00430437 0)
(10.0148 0.00472374 0)
(10.0192 0.00497559 0)
(10.0236 0.0050798 0)
(10.0281 0.00505573 0)
(10.0325 0.0049218 0)
(10.0368 0.00469376 0)
(10.0409 0.00438457 0)
(10.0449 0.00400511 0)
(10.0488 0.00356502 0)
(10.0525 0.00307282 0)
(10.056 0.00253693 0)
(10.0593 0.00196236 0)
(10.0625 0.00137251 0)
(10.0001 -0.000207666 0)
(10.0012 -0.000613895 0)
(10.0034 -0.000995012 0)
(10.0065 -0.00133961 0)
(10.0102 -0.00164793 0)
(10.0143 -0.00193415 0)
(10.0185 -0.00221606 0)
(10.0228 -0.0025057 0)
(10.0271 -0.00281027 0)
(10.0313 -0.00313515 0)
(10.0355 -0.0034844 0)
(10.0395 -0.00386005 0)
(10.0434 -0.0042624 0)
(10.0471 -0.00469036 0)
(10.0507 -0.00514204 0)
(10.0541 -0.00561429 0)
(10.0573 -0.00610579 0)
(10.0603 -0.00659991 0)
(10.0001 -0.0010148 0)
(10.0013 -0.00296677 0)
(10.0037 -0.00471164 0)
(10.007 -0.006168 0)
(10.0108 -0.00733315 0)
(10.015 -0.00826702 0)
(10.0193 -0.00903085 0)
(10.0237 -0.00966655 0)
(10.028 -0.0102082 0)
(10.0323 -0.0106871 0)
(10.0364 -0.0111278 0)
(10.0404 -0.0115467 0)
(10.0442 -0.0119544 0)
(10.0479 -0.0123584 0)
(10.0514 -0.012763 0)
(10.0547 -0.0131705 0)
(10.0579 -0.0135829 0)
(10.0609 -0.0139899 0)
(10.0002 -0.00171082 0)
(10.0015 -0.00502172 0)
(10.0041 -0.00795956 0)
(10.0078 -0.0103221 0)
(10.012 -0.0121308 0)
(10.0164 -0.0135357 0)
(10.021 -0.0146426 0)
(10.0255 -0.0155087 0)
(10.03 -0.0161904 0)
(10.0343 -0.0167461 0)
(10.0385 -0.0172201 0)
(10.0425 -0.0176407 0)
(10.0464 -0.0180268 0)
(10.0501 -0.0183921 0)
(10.0535 -0.0187454 0)
(10.0569 -0.0190922 0)
(10.06 -0.0194365 0)
(10.063 -0.0197717 0)
(10.0002 -0.00237187 0)
(10.0016 -0.0070526 0)
(10.0047 -0.0112052 0)
(10.009 -0.0143845 0)
(10.0137 -0.0166906 0)
(10.0185 -0.0184338 0)
(10.0233 -0.019774 0)
(10.0281 -0.0207818 0)
(10.0328 -0.0215386 0)
(10.0373 -0.0221252 0)
(10.0416 -0.022598 0)
(10.0456 -0.0229935 0)
(10.0495 -0.0233379 0)
(10.0532 -0.0236505 0)
(10.0567 -0.0239443 0)
(10.06 -0.0242268 0)
(10.0631 -0.0245034 0)
(10.0661 -0.02477 0)
(10.0002 -0.00299067 0)
(10.0018 -0.00910945 0)
(10.0054 -0.0144733 0)
(10.0105 -0.0183711 0)
(10.0159 -0.0211235 0)
(10.0211 -0.0231539 0)
(10.0263 -0.0246173 0)
(10.0314 -0.0256388 0)
(10.0362 -0.0263724 0)
(10.0409 -0.026928 0)
(10.0452 -0.0273619 0)
(10.0494 -0.0277096 0)
(10.0533 -0.0280002 0)
(10.057 -0.028256 0)
(10.0605 -0.0284911 0)
(10.0638 -0.0287138 0)
(10.067 -0.0289295 0)
(10.0699 -0.0291361 0)
(10.0001 -0.00353625 0)
(10.0018 -0.0115611 0)
(10.0062 -0.0179047 0)
(10.0123 -0.02201 0)
(10.0183 -0.0250844 0)
(10.024 -0.0275008 0)
(10.0296 -0.0291456 0)
(10.035 -0.0301619 0)
(10.0401 -0.0308201 0)
(10.0448 -0.0312848 0)
(10.0493 -0.0316236 0)
(10.0536 -0.0318769 0)
(10.0575 -0.0320785 0)
(10.0613 -0.0322522 0)
(10.0648 -0.0324114 0)
(10.0681 -0.0325633 0)
(10.0712 -0.0327115 0)
(10.0741 -0.0328528 0)
(9.99991 -0.00338469 0)
(10.0016 -0.0149742 0)
(10.0073 -0.0227393 0)
(10.0142 -0.0262578 0)
(10.0206 -0.0288511 0)
(10.0268 -0.0312223 0)
(10.0331 -0.0329489 0)
(10.039 -0.034042 0)
(10.0444 -0.0347464 0)
(10.0494 -0.0352141 0)
(10.054 -0.0355158 0)
(10.0583 -0.0357053 0)
(10.0622 -0.0358289 0)
(10.0659 -0.0359173 0)
(10.0693 -0.0359885 0)
(10.0725 -0.0360524 0)
(10.0754 -0.0361138 0)
(10.0781 -0.0361714 0)
(9.9986 -0.000402043 0)
(9.99909 -0.0157582 0)
(10.0075 -0.0274403 0)
(10.0166 -0.032507 0)
(10.0237 -0.0348881 0)
(10.0306 -0.0362482 0)
(10.0376 -0.0370038 0)
(10.0441 -0.0374744 0)
(10.0498 -0.0378265 0)
(10.0549 -0.0380765 0)
(10.0595 -0.0382241 0)
(10.0635 -0.0382941 0)
(10.0671 -0.0383165 0)
(10.0702 -0.0383125 0)
(10.073 -0.0382972 0)
(10.0754 -0.038279 0)
(10.0775 -0.0382618 0)
(10.0794 -0.0382436 0)
(9.99488 0.00132615 0)
(9.99287 -0.00809536 0)
(10.006 -0.0203624 0)
(10.0202 -0.0322899 0)
(10.0306 -0.0404941 0)
(10.0392 -0.0441682 0)
(10.0467 -0.0450825 0)
(10.0529 -0.0449407 0)
(10.0577 -0.0444763 0)
(10.0616 -0.0438823 0)
(10.0645 -0.0432395 0)
(10.0667 -0.0426043 0)
(10.0681 -0.0420109 0)
(10.069 -0.0414676 0)
(10.0693 -0.0409836 0)
(10.0691 -0.0405559 0)
(10.0687 -0.0401817 0)
(10.0679 -0.0398351 0)
(9.99473 -0.0305603 0)
(9.99923 -0.0228794 0)
(10.0147 -0.00264275 0)
(10.0304 -0.00191948 0)
(10.0434 -0.0116699 0)
(10.0533 -0.0209354 0)
(10.0594 -0.0272946 0)
(10.0618 -0.0315229 0)
(10.0615 -0.0342992 0)
(10.059 -0.0359969 0)
(10.055 -0.03693 0)
(10.0497 -0.0373646 0)
(10.0434 -0.0374908 0)
(10.0363 -0.0374288 0)
(10.0288 -0.0372683 0)
(10.0208 -0.0370653 0)
(10.0127 -0.0368842 0)
(10.0045 -0.0366933 0)
(10.0273 -0.182702 0)
(10.0763 -0.288312 0)
(10.0872 -0.247746 0)
(10.0777 -0.186512 0)
(10.0663 -0.140295 0)
(10.0537 -0.108223 0)
(10.0365 -0.0858828 0)
(10.0145 -0.070429 0)
(9.98932 -0.0596612 0)
(9.96228 -0.0518872 0)
(9.93429 -0.0460662 0)
(9.90596 -0.0415696 0)
(9.87778 -0.0380141 0)
(9.85006 -0.0351387 0)
(9.82305 -0.0327744 0)
(9.79688 -0.0308531 0)
(9.77177 -0.0293359 0)
(9.74776 -0.0285174 0)
(9.93574 0.689239 0)
(9.86866 0.609599 0)
(9.76451 0.380615 0)
(9.62662 0.217432 0)
(9.48586 0.119257 0)
(9.35717 0.0631767 0)
(9.24264 0.0315631 0)
(9.14104 0.0136105 0)
(9.05136 0.00325524 0)
(8.97237 -0.00280674 0)
(8.90245 -0.00636178 0)
(8.84026 -0.008481 0)
(8.78454 -0.00973009 0)
(8.73441 -0.0104839 0)
(8.68897 -0.0109748 0)
(8.64761 -0.0112438 0)
(8.60941 -0.0114588 0)
(8.57406 -0.012111 0)
(0.00469922 -0.010856 -6.4977e-19)
(0.0162567 -0.0174628 5.96796e-19)
(0.0265506 -0.0153124 -3.71326e-19)
(0.03318 -0.00929345 -1.09835e-19)
(0.0352638 -0.0022722 1.62735e-19)
(0.0325651 0.00408868 -3.71078e-20)
(0.0261606 0.00898324 -3.27656e-20)
(0.0169144 0.0123391 1.38581e-19)
(0.00554076 0.0144565 -7.38034e-20)
(-0.00740227 0.0157307 2.22014e-20)
(-0.0215771 0.0165467 7.93386e-21)
(-0.0368098 0.0171705 -8.95451e-20)
(-0.0529852 0.0177355 1.26128e-19)
(-0.0700403 0.0182942 1.26713e-19)
(-0.0879319 0.0188606 1.05281e-20)
(-0.106625 0.0194367 4.22092e-20)
(-0.126082 0.0200265 1.5609e-20)
(-0.146269 0.0206384 2.51982e-20)
(-0.167147 0.0212888 3.47664e-20)
(-0.18869 0.0219915 3.46371e-21)
(-0.210867 0.0227595 -1.07237e-20)
(-0.233665 0.0235808 8.15894e-20)
(-0.257069 0.0244304 -9.60676e-21)
(-0.281078 0.0252427 7.23628e-20)
(-0.305705 0.0259531 -1.40338e-20)
(-0.330988 0.0264892 5.01018e-20)
(-0.357005 0.0268047 2.37539e-20)
(-0.383852 0.0268629 1.45479e-20)
(-0.411572 0.0267999 -5.43913e-20)
(-0.440175 0.0266464 -9.19761e-21)
(-0.469619 0.0214533 -5.78998e-20)
(-0.499622 0.0113978 3.26471e-20)
(-0.527547 0.0112542 2.2477e-20)
(-0.556378 0.0205798 -2.64404e-20)
(-0.588859 0.0284315 -3.82139e-20)
(-0.622608 0.0387928 -2.42642e-21)
(-0.659043 0.0550036 1.30435e-20)
(-0.697693 0.0761678 3.34522e-20)
(-0.739953 0.0603131 2.81509e-20)
(-0.782207 0.0342442 6.91225e-20)
(-0.819839 0.0437915 2.58592e-20)
(-0.86172 0.0405457 6.44973e-21)
(-0.901728 0.0262233 -8.25022e-20)
(-0.938962 0.0251986 -1.64863e-20)
(-0.975838 0.0340152 3.29176e-20)
(-1.01671 0.0347454 1.6394e-21)
(-1.05724 0.0348388 7.37231e-20)
(-1.09791 0.0347338 2.29929e-20)
(-1.13862 0.0345782 9.03634e-21)
(-1.17936 0.0343572 -7.19507e-20)
(-1.22004 0.0340883 5.69239e-20)
(-1.26064 0.0337803 5.08036e-21)
(-1.30111 0.0334482 6.96165e-20)
(-1.34143 0.0330979 5.39703e-20)
(-1.38158 0.0327357 2.07383e-20)
(-1.42153 0.0323628 4.79449e-20)
(-1.46128 0.0319817 6.44658e-20)
(-1.50081 0.0315915 -7.03216e-20)
(-1.5401 0.0311927 2.80889e-20)
(-1.57913 0.0307836 3.19703e-20)
(-1.61789 0.0303639 -7.66604e-20)
(-1.65635 0.0299315 -5.03087e-20)
(-1.69448 0.0294859 3.93301e-20)
(-1.73227 0.029025 4.72694e-20)
(-1.76969 0.0285483 1.3296e-20)
(-1.80671 0.0280539 -5.12676e-20)
(-1.8433 0.0275415 5.65684e-21)
(-1.87943 0.0270096 2.68497e-21)
(-1.91505 0.0264582 1.34301e-20)
(-1.95015 0.0258859 6.56968e-20)
(-1.98468 0.025293 -3.27401e-21)
(-2.0186 0.0246783 -4.75392e-20)
(-2.05188 0.0240426 5.11925e-20)
(-2.08448 0.0233847 1.86386e-20)
(-2.11636 0.0227057 -3.01194e-20)
(-2.14748 0.0220049 2.49937e-20)
(-2.17779 0.0212835 -3.83965e-21)
(-2.20726 0.0205411 4.80123e-20)
(-2.23585 0.019779 2.20685e-20)
(-2.26352 0.0189966 -3.25104e-20)
(-2.29021 0.0181955 -9.26242e-21)
(-2.31591 0.0173752 1.82752e-21)
(-2.34056 0.016537 3.61958e-20)
(-2.36412 0.0156803 4.47844e-20)
(-2.38656 0.0148062 3.928e-20)
(-2.40784 0.0139138 -3.97074e-20)
(-2.42791 0.0130037 8.41072e-20)
(-2.44673 0.0120732 -3.32381e-21)
(-2.46427 0.0111207 5.97084e-20)
(-2.48048 0.0101414 -8.41291e-20)
(-2.49532 0.00912895 -4.48666e-20)
(-2.50874 0.00807583 3.74878e-20)
(-2.52068 0.00697298 5.41585e-20)
(-2.53108 0.00581017 -8.15928e-21)
(-2.53987 0.00458243 -5.01784e-20)
(-2.54697 0.0033053 -4.94448e-20)
(-2.5523 0.00203253 5.03103e-20)
(-2.55573 0.000852597 -2.68733e-20)
(-2.55716 -0.000155488 -6.34895e-20)
(-2.55717 -0.00104839 -2.73833e-20)
(-2.55566 -0.00191651 6.68439e-20)
(-2.55267 -0.00277239 3.31883e-20)
(-2.54819 -0.00362339 4.90118e-20)
(-2.54222 -0.00447037 -2.95822e-20)
(-2.53474 -0.00531275 9.29251e-21)
(-2.52575 -0.00615048 3.17982e-21)
(-2.51524 -0.00698211 -5.73517e-21)
(-2.5032 -0.00780793 -1.22052e-20)
(-2.48964 -0.00862647 -1.79726e-20)
(-2.47454 -0.0094382 -2.86124e-20)
(-2.45791 -0.0102415 -3.82729e-20)
(-2.43975 -0.011037 1.97295e-20)
(-2.42006 -0.0118229 -2.67333e-20)
(-2.39885 -0.0125999 -2.52957e-20)
(-2.37612 -0.0133662 4.29441e-20)
(-2.35188 -0.0141226 -2.43225e-21)
(-2.32615 -0.0148673 -2.51646e-20)
(-2.29892 -0.015601 -2.48121e-20)
(-2.27022 -0.0163221 2.14631e-20)
(-2.24005 -0.0170316 1.48672e-21)
(-2.20845 -0.0177283 5.44013e-21)
(-2.17543 -0.0184124 -3.17496e-21)
(-2.141 -0.019082 -8.00784e-21)
(-2.10519 -0.0197373 5.55368e-21)
(-2.06803 -0.0203766 -3.67558e-21)
(-2.02952 -0.0210015 2.0455e-21)
(-1.98972 -0.021611 7.58835e-22)
(-1.94863 -0.022207 5.68854e-22)
(-1.9063 -0.0227871 -4.3323e-21)
(-1.86275 -0.023352 6.72003e-21)
(-1.81801 -0.0239003 -2.47242e-20)
(-1.77212 -0.0244318 3.06127e-21)
(-1.72512 -0.0249475 5.11258e-20)
(-1.67705 -0.0254502 -1.63724e-20)
(-1.62795 -0.0259359 5.27501e-21)
(-1.57785 -0.0264045 -3.6146e-20)
(-1.52679 -0.026857 -6.0166e-20)
(-1.47483 -0.0272936 6.51812e-20)
(-1.42201 -0.0277149 3.07713e-20)
(-1.36837 -0.0281209 -7.70547e-21)
(-1.31396 -0.0285117 1.46538e-19)
(-1.25881 -0.0288874 1.29298e-19)
(-1.20299 -0.0292485 -6.81915e-20)
(-1.14654 -0.0295953 -7.1977e-20)
(-1.08949 -0.029929 -1.26228e-19)
(-1.0319 -0.0302497 -1.80604e-19)
(-0.973815 -0.0305587 -1.34097e-19)
(-0.915277 -0.0308562 -2.14207e-19)
(-0.856332 -0.0311436 1.04717e-19)
(-0.797023 -0.0314211 9.65202e-20)
(-0.737394 -0.0316902 1.65252e-19)
(-0.677488 -0.0319509 1.22009e-19)
(-0.617347 -0.0322051 3.44991e-19)
(-0.557009 -0.0324527 2.32667e-20)
(-0.496515 -0.0326955 1.48798e-20)
(-0.435903 -0.0329336 -2.59077e-19)
(-0.375211 -0.0331682 4.10128e-19)
(-0.314475 -0.0333989 -2.44035e-19)
(-0.253734 -0.033629 3.40139e-20)
(-0.193024 -0.0338676 1.23471e-19)
(-0.13238 -0.0341277 4.52563e-20)
(-0.0718514 -0.0343729 1.1587e-19)
(-0.0114721 -0.0343657 5.42682e-19)
(0.0486986 -0.0337662 2.52376e-19)
(0.108708 -0.0328161 1.09185e-19)
(0.168487 -0.0318745 1.41884e-19)
(0.228003 -0.0309887 3.67987e-19)
(0.287255 -0.0301529 -1.48049e-20)
(0.346251 -0.0293592 3.58657e-19)
(0.40499 -0.0285981 4.76222e-19)
(0.463458 -0.0278594 4.2638e-19)
(0.521617 -0.0271296 -1.42847e-20)
(0.579399 -0.0263892 3.40227e-20)
(0.636665 -0.0256064 -7.39842e-20)
(0.693215 -0.0247226 -8.52904e-19)
(0.748425 -0.023626 3.88011e-19)
(0.801993 -0.0220438 2.62818e-19)
(0.849035 -0.0193273 -4.93381e-19)
(0.895381 -0.0139133 -4.62625e-19)
(0.888066 0.00327983 6.88273e-19)
(0.00483404 -0.0330575 1.39319e-18)
(0.0107372 -0.0334639 -5.44401e-19)
(0.0110519 -0.0211528 -1.49886e-19)
(0.00830658 -0.00766906 2.96604e-19)
(0.00311856 0.00511277 5.75097e-20)
(-0.00418929 0.0163085 3.40893e-20)
(-0.0136137 0.0254747 -3.11641e-20)
(-0.0250594 0.0326147 -1.4888e-19)
(-0.0383972 0.0380303 -9.91305e-21)
(-0.05343 0.0421506 -1.40436e-19)
(-0.0699327 0.0453945 7.89604e-21)
(-0.0877215 0.0480869 -2.00948e-21)
(-0.106665 0.0504389 4.6538e-20)
(-0.126669 0.0525682 6.38598e-21)
(-0.147669 0.0545331 -1.37596e-20)
(-0.169626 0.0563592 -1.09881e-19)
(-0.192514 0.0580578 -2.24258e-20)
(-0.216327 0.0596355 9.20941e-20)
(-0.241064 0.0611014 -1.01284e-19)
(-0.26674 0.0624672 2.69176e-20)
(-0.293381 0.0637498 2.33089e-21)
(-0.321025 0.0649676 4.76892e-20)
(-0.349721 0.0661461 5.31378e-20)
(-0.379531 0.0673146 4.34807e-20)
(-0.410528 0.0685215 5.47418e-20)
(-0.442764 0.0698407 -3.02299e-20)
(-0.476308 0.0713394 7.33995e-21)
(-0.511166 0.0730523 9.0736e-21)
(-0.547225 0.0750102 -3.42422e-20)
(-0.584083 0.0771133 -2.36153e-20)
(-0.622223 0.0788562 -3.76236e-20)
(-0.661786 0.0803602 -1.13604e-20)
(-0.703187 0.0818803 -8.31558e-20)
(-0.744907 0.0837654 3.31354e-20)
(-0.785762 0.0854842 -4.64934e-20)
(-0.827795 0.085839 5.5492e-20)
(-0.868929 0.0860355 -5.24949e-20)
(-0.907503 0.0867138 1.45424e-20)
(-0.947864 0.0868058 3.85787e-20)
(-0.988512 0.0873073 -2.98928e-20)
(-1.029 0.0891558 2.43666e-20)
(-1.0676 0.0897351 -9.69612e-21)
(-1.10738 0.0894811 -3.67833e-20)
(-1.14779 0.0893787 -1.06675e-19)
(-1.18765 0.0895436 -7.53335e-20)
(-1.22591 0.0893003 8.81324e-22)
(-1.26366 0.0887489 -9.24026e-20)
(-1.30099 0.0880141 -2.50564e-20)
(-1.33793 0.0871478 8.81782e-20)
(-1.37452 0.0861921 1.34326e-19)
(-1.41079 0.0851728 3.16629e-20)
(-1.44675 0.0841081 -1.37342e-20)
(-1.48241 0.0830122 -1.44693e-20)
(-1.51777 0.0818927 -4.62899e-20)
(-1.55283 0.0807552 -3.55853e-20)
(-1.58758 0.0796009 -9.32916e-20)
(-1.62201 0.0784308 -1.09798e-19)
(-1.65611 0.0772432 -2.4353e-20)
(-1.68987 0.0760368 1.62604e-20)
(-1.72327 0.0748085 -8.30764e-20)
(-1.75629 0.0735564 6.37557e-20)
(-1.78891 0.0722773 -2.71563e-20)
(-1.82112 0.0709691 -1.09357e-19)
(-1.85289 0.0696286 8.27301e-21)
(-1.88419 0.0682542 7.90828e-20)
(-1.915 0.0668431 -3.0333e-20)
(-1.94529 0.0653944 3.35472e-21)
(-1.97504 0.0639059 -7.04833e-20)
(-2.00422 0.0623772 2.42365e-20)
(-2.0328 0.0608069 -4.14349e-20)
(-2.06074 0.0591951 7.43259e-22)
(-2.08801 0.0575408 -5.09127e-20)
(-2.1146 0.0558448 1.59197e-21)
(-2.14045 0.0541066 -3.01561e-20)
(-2.16555 0.0523275 3.98847e-20)
(-2.18985 0.0505074 -6.86862e-20)
(-2.21334 0.0486483 8.92638e-21)
(-2.23597 0.0467507 -6.91264e-20)
(-2.25771 0.0448167 2.69784e-21)
(-2.27853 0.0428467 5.42993e-20)
(-2.29839 0.0408432 1.06278e-20)
(-2.31728 0.038807 -3.16665e-20)
(-2.33514 0.0367405 -4.72403e-20)
(-2.35197 0.0346444 2.69519e-20)
(-2.36771 0.0325212 7.57507e-20)
(-2.38235 0.0303716 -2.38703e-20)
(-2.39585 0.0281982 -8.24773e-22)
(-2.40819 0.0260011 -1.9948e-21)
(-2.41933 0.0237816 4.76228e-20)
(-2.42925 0.0215389 1.66242e-19)
(-2.43792 0.0192715 3.59965e-20)
(-2.44534 0.0169785 6.70951e-20)
(-2.4515 0.0146587 -1.44605e-19)
(-2.45637 0.0123087 -6.90847e-20)
(-2.45999 0.00992124 4.46168e-20)
(-2.46237 0.00749421 9.00761e-20)
(-2.46359 0.00505224 -4.91053e-20)
(-2.46375 0.00266705 -1.98072e-20)
(-2.46296 0.000428249 -3.3806e-20)
(-2.4608 -0.00169284 4.8536e-20)
(-2.45724 -0.00377199 -6.66175e-20)
(-2.45224 -0.00582223 -4.94959e-20)
(-2.44578 -0.00785187 -3.14689e-20)
(-2.43785 -0.00986166 1.02689e-19)
(-2.42843 -0.01185 -1.14045e-20)
(-2.41753 -0.0138155 7.02472e-21)
(-2.40512 -0.0157554 3.59226e-20)
(-2.39121 -0.0176685 7.59088e-20)
(-2.37578 -0.0195523 -1.01916e-20)
(-2.35885 -0.0214061 -2.79529e-20)
(-2.3404 -0.0232274 2.04971e-21)
(-2.32045 -0.0250154 -4.87765e-20)
(-2.29898 -0.0267676 5.12161e-20)
(-2.27601 -0.0284834 1.84625e-20)
(-2.25155 -0.0301603 1.42259e-20)
(-2.22559 -0.0317979 3.33398e-20)
(-2.19815 -0.0333935 3.79369e-20)
(-2.16925 -0.0349464 -1.89281e-20)
(-2.13888 -0.0364545 1.15447e-20)
(-2.10708 -0.0379179 1.52029e-20)
(-2.07385 -0.0393352 1.67332e-20)
(-2.03921 -0.0407059 -1.74531e-21)
(-2.0032 -0.042027 -7.06678e-22)
(-1.96581 -0.0432974 -8.40574e-21)
(-1.92709 -0.0445144 -6.10951e-21)
(-1.88704 -0.0456787 -3.97318e-21)
(-1.84571 -0.0467892 1.6745e-21)
(-1.80311 -0.0478477 1.20369e-22)
(-1.75928 -0.0488526 3.1305e-21)
(-1.71425 -0.0498062 7.83124e-22)
(-1.66805 -0.0507074 9.98132e-21)
(-1.62071 -0.0515518 1.64409e-20)
(-1.57228 -0.0523342 9.75448e-21)
(-1.52279 -0.0530624 -7.13208e-21)
(-1.47227 -0.053739 -7.66326e-21)
(-1.42078 -0.054361 -9.19561e-21)
(-1.36834 -0.0549255 1.54801e-20)
(-1.31501 -0.0554347 -9.27438e-20)
(-1.26083 -0.0558897 1.17148e-21)
(-1.20584 -0.0562914 6.87913e-20)
(-1.15009 -0.05664 -4.16982e-20)
(-1.09363 -0.0569363 5.37215e-20)
(-1.0365 -0.0571809 2.29875e-20)
(-0.97874 -0.0573756 -4.52082e-20)
(-0.920407 -0.0575216 -1.4246e-20)
(-0.861543 -0.0576207 -6.97226e-20)
(-0.802193 -0.0576745 -4.24159e-20)
(-0.742403 -0.057685 8.97301e-20)
(-0.682219 -0.0576539 1.42949e-19)
(-0.621683 -0.0575834 -1.9356e-19)
(-0.560841 -0.0574752 5.8615e-20)
(-0.499734 -0.0573317 1.14697e-20)
(-0.438405 -0.0571547 -3.18104e-19)
(-0.376894 -0.0569464 7.76719e-21)
(-0.315241 -0.0567083 4.85887e-21)
(-0.253484 -0.0564429 -1.01224e-19)
(-0.191662 -0.056151 1.27736e-19)
(-0.129809 -0.0558331 1.79456e-19)
(-0.0679633 -0.0554901 1.8638e-19)
(-0.00615157 -0.0551236 1.64442e-19)
(0.0556067 -0.054733 -2.39953e-19)
(0.11729 -0.0543154 2.98569e-20)
(0.178881 -0.0538095 -6.28276e-20)
(0.240299 -0.0530989 1.66208e-19)
(0.301481 -0.0522389 -4.96637e-20)
(0.362434 -0.0513634 1.98171e-19)
(0.42318 -0.0505118 -1.94623e-19)
(0.483715 -0.049687 -2.98124e-19)
(0.544036 -0.0488829 -4.49855e-19)
(0.604133 -0.0480894 -2.10031e-19)
(0.663988 -0.0472924 -9.40815e-20)
(0.723559 -0.0464712 4.47365e-20)
(0.782777 -0.0455914 2.70669e-20)
(0.841508 -0.0445946 -3.12877e-19)
(0.899546 -0.0433677 -2.89778e-19)
(0.956383 -0.0416996 3.99226e-19)
(1.01162 -0.039057 4.86711e-19)
(1.06232 -0.0344543 4.55536e-19)
(1.11161 -0.0245367 2.29302e-19)
(1.13778 -0.000625409 -4.9231e-19)
(0.00033179 -0.0416636 1.52994e-19)
(-0.00186834 -0.0286906 6.00942e-19)
(-0.0078925 -0.00994292 3.63598e-19)
(-0.0159519 0.00743385 -2.46904e-19)
(-0.0255065 0.023091 5.9544e-20)
(-0.0362486 0.0369449 -3.67947e-20)
(-0.0481701 0.0489072 -1.8536e-20)
(-0.0613648 0.0589789 1.62178e-19)
(-0.0759131 0.0673166 1.38139e-19)
(-0.0918348 0.0742025 1.20512e-19)
(-0.109091 0.0799646 5.54879e-20)
(-0.127612 0.0849055 5.30187e-20)
(-0.147318 0.0892672 -1.67574e-19)
(-0.16814 0.0932221 -1.01902e-19)
(-0.190024 0.0968837 3.54735e-20)
(-0.212936 0.100325 -7.36378e-20)
(-0.236858 0.103594 6.89595e-20)
(-0.261784 0.106729 9.63657e-21)
(-0.28772 0.109766 9.23832e-20)
(-0.314681 0.112743 7.73081e-20)
(-0.342683 0.115704 -6.9919e-20)
(-0.37175 0.118694 -1.78607e-19)
(-0.401903 0.121763 -3.03895e-20)
(-0.43316 0.124954 -1.84345e-19)
(-0.465524 0.128303 3.88727e-20)
(-0.498978 0.131824 5.7522e-20)
(-0.533443 0.135502 -2.18363e-20)
(-0.568762 0.139234 7.13505e-20)
(-0.604742 0.142812 3.64727e-20)
(-0.641169 0.145919 7.6641e-20)
(-0.678098 0.148089 -3.63738e-20)
(-0.715566 0.149342 -2.20384e-20)
(-0.753485 0.150699 1.07216e-20)
(-0.791195 0.152118 -1.27032e-20)
(-0.828303 0.153613 -1.85044e-20)
(-0.864926 0.15512 -1.26812e-21)
(-0.900567 0.156282 -6.71288e-20)
(-0.93516 0.157022 2.42449e-20)
(-0.969562 0.156081 -6.03449e-20)
(-1.00418 0.154207 -1.98133e-20)
(-1.03849 0.152685 1.63126e-20)
(-1.07222 0.150219 -1.53766e-20)
(-1.10629 0.147116 -2.99877e-20)
(-1.14071 0.144793 8.22251e-20)
(-1.17477 0.143121 9.09574e-20)
(-1.20814 0.141351 -6.07079e-20)
(-1.24114 0.139551 2.75702e-20)
(-1.27386 0.137742 -3.19183e-20)
(-1.30634 0.135921 -5.65329e-20)
(-1.33858 0.134085 -2.7653e-20)
(-1.37061 0.132234 -2.96797e-20)
(-1.40243 0.130367 5.58112e-20)
(-1.43405 0.128485 9.36825e-21)
(-1.46546 0.126589 4.38221e-20)
(-1.49667 0.124678 5.23422e-21)
(-1.52766 0.122749 6.38335e-21)
(-1.55841 0.120799 2.58886e-20)
(-1.58893 0.118824 4.0286e-20)
(-1.61919 0.116821 -7.04118e-21)
(-1.64917 0.114784 1.32632e-19)
(-1.67886 0.112709 9.63236e-20)
(-1.70823 0.110592 2.28298e-20)
(-1.73727 0.10843 5.12054e-20)
(-1.76595 0.106217 -1.19499e-19)
(-1.79424 0.103953 1.75278e-20)
(-1.82213 0.101632 7.02554e-20)
(-1.84957 0.0992542 -1.13167e-19)
(-1.87656 0.0968163 -5.13928e-20)
(-1.90305 0.0943176 3.46936e-20)
(-1.92902 0.0917569 2.72975e-20)
(-1.95444 0.089134 -5.80942e-20)
(-1.97927 0.0864484 1.00683e-19)
(-2.00349 0.0837008 1.1749e-20)
(-2.02706 0.0808915 3.64514e-20)
(-2.04995 0.078022 -1.19777e-19)
(-2.07213 0.0750933 1.1614e-19)
(-2.09357 0.0721076 2.44127e-20)
(-2.11423 0.0690664 -5.03939e-20)
(-2.13408 0.0659724 -9.18377e-20)
(-2.15308 0.0628275 -4.55957e-20)
(-2.17122 0.0596345 7.31407e-21)
(-2.18845 0.056396 1.96904e-20)
(-2.20473 0.0531149 -9.28765e-21)
(-2.22006 0.0497936 -6.93786e-20)
(-2.23438 0.0464355 -1.90435e-20)
(-2.24767 0.0430431 -2.0995e-20)
(-2.2599 0.0396199 1.25561e-20)
(-2.27106 0.0361684 -4.33944e-20)
(-2.28109 0.0326918 -6.21018e-20)
(-2.29 0.0291926 -7.62324e-20)
(-2.29774 0.0256736 2.45338e-20)
(-2.30433 0.0221396 -8.93117e-20)
(-2.30973 0.0185976 8.64636e-20)
(-2.31394 0.0150573 7.43634e-21)
(-2.31697 0.0115321 -2.02001e-20)
(-2.31881 0.00804103 -3.73743e-20)
(-2.31946 0.00460679 1.28236e-20)
(-2.31888 0.00123952 6.13451e-20)
(-2.31702 -0.00209131 5.00457e-20)
(-2.31382 -0.00540743 2.20183e-20)
(-2.30924 -0.00869936 2.61067e-20)
(-2.30327 -0.0119635 1.28619e-20)
(-2.29589 -0.0151979 1.17805e-20)
(-2.28708 -0.0183993 -1.60909e-19)
(-2.27683 -0.0215645 3.1207e-20)
(-2.26514 -0.0246896 2.78409e-20)
(-2.25198 -0.0277713 -5.31353e-20)
(-2.23737 -0.0308063 4.45383e-20)
(-2.22129 -0.0337919 -1.45225e-20)
(-2.20374 -0.036725 6.12762e-20)
(-2.18472 -0.039603 4.35284e-20)
(-2.16424 -0.0424231 2.97292e-20)
(-2.14229 -0.0451829 -1.89565e-20)
(-2.11887 -0.0478796 2.23157e-20)
(-2.094 -0.0505109 1.40002e-20)
(-2.06768 -0.0530743 -1.57911e-20)
(-2.03992 -0.0555673 -2.26624e-20)
(-2.01073 -0.0579873 6.72505e-20)
(-1.98012 -0.0603325 9.63643e-21)
(-1.94811 -0.0626013 -1.99396e-20)
(-1.91472 -0.0647923 -4.59421e-20)
(-1.87995 -0.0669033 -5.29909e-21)
(-1.84384 -0.0689313 -4.05024e-22)
(-1.80639 -0.0708735 -1.07155e-20)
(-1.76764 -0.0727274 5.28006e-22)
(-1.7276 -0.0744922 4.15636e-21)
(-1.68631 -0.0761671 -4.90579e-21)
(-1.64379 -0.0777528 -8.59113e-22)
(-1.60006 -0.0792495 -1.54847e-21)
(-1.55517 -0.0806579 -1.11016e-20)
(-1.50913 -0.0819767 4.74032e-21)
(-1.46199 -0.0832016 -1.4714e-20)
(-1.41378 -0.0843281 -4.81447e-20)
(-1.36454 -0.0853617 -5.71449e-21)
(-1.3143 -0.086305 3.04961e-20)
(-1.2631 -0.0871559 -8.99946e-21)
(-1.21099 -0.0879119 -9.35271e-21)
(-1.15801 -0.0885747 2.82828e-20)
(-1.1042 -0.0891457 3.96388e-20)
(-1.0496 -0.0896265 -2.62661e-21)
(-0.994261 -0.0900177 1.87386e-20)
(-0.938228 -0.0903207 -1.33286e-19)
(-0.881545 -0.0905369 -1.60043e-20)
(-0.824256 -0.0906685 -1.60143e-20)
(-0.766407 -0.0907178 -2.81286e-20)
(-0.708044 -0.0906873 1.19477e-19)
(-0.64921 -0.0905797 -3.34239e-20)
(-0.589952 -0.0903979 -6.76331e-20)